                         Program Version 6.0.1  -  RELEASE   -
|  1> ! B3LYP D3 def2-TZVP def2/J RIJCOSX opt noautostart miniprint
|  2> * xyz   0   1
|  3> C     -3.66206043   -1.21771098   -0.69621447
|  4> H     -3.12889668   -2.14541590   -0.69621447
|  5> H     -4.57444336   -1.12712646   -1.24780474
|  6> C     -3.18572959   -0.15706902    0.00000000
|  7> C     -1.87258032   -0.28744300    0.79387759
|  8> H     -1.07541545   -0.53885518    0.12588052
|  9> H     -1.65375618    0.64214311    1.27645988
| 10> H     -1.97618681   -1.05620145    1.53088244
| 11> O     -3.89827553    1.08276092    0.00000000
| 12> C     -3.53735000    1.84075010    1.15762048
| 13> H     -3.92876475    2.83278601    1.07067659
| 14> H     -3.94200801    1.37291062    2.03070588
| 15> H     -2.47121417    1.88372014    1.23767015
| 16> *
| 17>
| 18>                          ****END OF INPUT****
Dispersion correction           -0.014951890
FINAL SINGLE POINT ENERGY      -232.373053340683
Dispersion correction             ... done (  0.0 sec)
Dispersion correction           -0.014238019
FINAL SINGLE POINT ENERGY      -232.383916374580
Dispersion correction             ... done (  0.0 sec)
Dispersion correction           -0.014435043
FINAL SINGLE POINT ENERGY      -232.388538146618
Dispersion correction             ... done (  0.0 sec)
FINAL SINGLE POINT ENERGY      -232.389823723388
FINAL SINGLE POINT ENERGY      -232.390155401281
FINAL SINGLE POINT ENERGY      -232.390754771002
FINAL SINGLE POINT ENERGY      -232.391144761981
FINAL SINGLE POINT ENERGY      -232.391790872103
FINAL SINGLE POINT ENERGY      -232.392657521947
FINAL SINGLE POINT ENERGY      -232.393255292707
FINAL SINGLE POINT ENERGY      -232.393969002186
FINAL SINGLE POINT ENERGY      -232.394691362479
FINAL SINGLE POINT ENERGY      -232.394968241003
FINAL SINGLE POINT ENERGY      -232.395076596654
FINAL SINGLE POINT ENERGY      -232.395097082214
Dispersion correction             ... done (  0.0 sec)
Dispersion correction           -0.014732679
FINAL SINGLE POINT ENERGY      -232.395105163835
Dispersion correction             ... done (  0.0 sec)
Dispersion correction           -0.014732936
FINAL SINGLE POINT ENERGY      -232.395106133837
Dispersion correction             ... done (  0.0 sec)
                    ***********************HURRAY********************

CARTESIAN COORDINATES (ANGSTROEM)
---------------------------------
  C     -3.622016   -1.107994   -0.784930
  H     -3.121758   -2.054947   -0.921345
  H     -4.548341   -0.930080   -1.312922
  C     -3.091071   -0.167565   -0.006732
  C     -1.809838   -0.331946    0.754356
  H     -1.374217   -1.304999    0.537011
  H     -1.089147    0.441964    0.475785
  H     -1.962350   -0.264382    1.834138
  O     -3.710990    1.055921    0.046848
  C     -3.644570    1.791450    1.259448
  H     -4.242158    2.686670    1.100494
  H     -4.068211    1.223054    2.093794
  H     -2.622013    2.088101    1.507596

ORBITAL ENERGIES
----------------

  NO   OCC          E(Eh)            E(eV)
   0   2.0000     -19.143514      -520.9215
   1   2.0000     -10.224225      -278.2153
   2   2.0000     -10.219158      -278.0774
   3   2.0000     -10.171753      -276.7875
   4   2.0000     -10.141863      -275.9741
   5   2.0000      -1.053551       -28.6686
   6   2.0000      -0.785623       -21.3779
   7   2.0000      -0.713272       -19.4091
   8   2.0000      -0.673933       -18.3386
   9   2.0000      -0.551964       -15.0197
  10   2.0000      -0.488096       -13.2818
  11   2.0000      -0.473051       -12.8724
  12   2.0000      -0.468581       -12.7507
  13   2.0000      -0.419037       -11.4026
  14   2.0000      -0.406199       -11.0532
  15   2.0000      -0.401763       -10.9325
  16   2.0000      -0.375831       -10.2269
  17   2.0000      -0.342616        -9.3230
  18   2.0000      -0.307237        -8.3603
  19   2.0000      -0.225108        -6.1255
  20   0.0000       0.022997         0.6258
  21   0.0000       0.035589         0.9684
  22   0.0000       0.066496         1.8094
  23   0.0000       0.085756         2.3335
  24   0.0000       0.097065         2.6413

Total SCF time: 0 days 0 hours 0 min 11 sec
Finished LeanSCF after  11.2 sec

Dispersion correction           -0.014732766
FINAL SINGLE POINT ENERGY      -232.395106234807

DIPOLE MOMENT
-------------

Method             : SCF
Type of density    : Electron Density
Multiplicity       :   1
Irrep              :   0
Energy             :  -232.3803734688120528 Eh
Relativity type    :
Basis              : AO
                                X                 Y                 Z
Electronic contribution:     -1.837347203       0.566235609      -2.192451470
Nuclear contribution   :      2.195199455      -0.406066605       2.818887885
                        -----------------------------------------
Total Dipole Moment    :      0.357852251       0.160169003       0.626436415
                        -----------------------------------------
Magnitude (a.u.)       :      0.739009421
Magnitude (Debye)      :      1.878412669

Rotational constants in cm-1:             0.276103             0.142309             0.099883
Rotational constants in MHz :          8277.348988          4266.301684          2994.428279

                             ****ORCA TERMINATED NORMALLY****
TOTAL RUN TIME: 0 days 0 hours 9 minutes 23 seconds 579 msec
