                         Program Version 6.0.1  -  RELEASE   -
|  1> ! PBE0 def2-SV(P) def2/J RIJCOSX tightSCF noautostart miniprint
|  2> %maxcore      512
|  3> %pal nprocs  14 end
|  4> %cpcm
|  5> smd true
|  6> SMDsolvent "water"
|  7> end
|  8> %tddft
|  9>   nroots 10
| 10>   TDA false
| 11> end
| 12> * xyz   -1   1
| 13> C     -0.45169300    1.29584700    0.11539200
| 14> C      0.84434400    1.43411000    0.59889500
| 15> C      1.49561100    2.68337100    0.54028700
| 16> C      0.76978900    3.80387500   -0.04584800
| 17> C     -0.55431300    3.62381900   -0.52931200
| 18> C     -1.16240300    2.39515100   -0.45504400
| 19> H      1.36319500    0.58122800    1.02983100
| 20> H     -1.07285700    4.47032100   -0.96977800
| 21> H     -2.17148500    2.23923600   -0.83204800
| 22> N      1.45999600    4.98879000   -0.10584900
| 23> O      2.72006200    2.83344400    1.00662900
| 24> O     -1.03132000    0.05693400    0.20018600
| 25> H     -1.93879300    0.08827200   -0.16553200
| 26> N      0.84559800    6.06786900   -0.47617100
| 27> C      1.65593900    7.17932800   -0.69192400
| 28> C      1.09661400    8.44923300   -0.41845000
| 29> C      2.96543500    7.09527700   -1.22513100
| 30> C      1.84859300    9.59909400   -0.59351300
| 31> H      0.07906000    8.50733300   -0.04072200
| 32> C      3.72133200    8.24449100   -1.40751200
| 33> H      3.36535600    6.13945700   -1.55768600
| 34> C      3.16284000    9.48712700   -1.07742400
| 35> H      1.43542600   10.57418700   -0.35841000
| 36> H      4.72373300    8.18838600   -1.81892800
| 37> N      3.95974900   10.69392600   -1.25965600
| 38> O      3.44307600   11.80267200   -0.98991800
| 39> O      5.13627100   10.58300600   -1.67513700
| 40> O      4.57106600    4.60381400   -0.06709700
| 41> H      5.32081900    4.32305200    0.46266100
| 42> O      3.63734400    5.47317600    1.88877600
| 43> H      4.25056700    5.03351000    2.48228200
| 44> Mg     3.39768900    4.64304300    0.74932700
| 45> *
| 46>
| 47>                          ****END OF INPUT****

CARTESIAN COORDINATES (ANGSTROEM)
---------------------------------
  C     -0.451693    1.295847    0.115392
  C      0.844344    1.434110    0.598895
  C      1.495611    2.683371    0.540287
  C      0.769789    3.803875   -0.045848
  C     -0.554313    3.623819   -0.529312
  C     -1.162403    2.395151   -0.455044
  H      1.363195    0.581228    1.029831
  H     -1.072857    4.470321   -0.969778
  H     -2.171485    2.239236   -0.832048
  N      1.459996    4.988790   -0.105849
  O      2.720062    2.833444    1.006629
  O     -1.031320    0.056934    0.200186
  H     -1.938793    0.088272   -0.165532
  N      0.845598    6.067869   -0.476171
  C      1.655939    7.179328   -0.691924
  C      1.096614    8.449233   -0.418450
  C      2.965435    7.095277   -1.225131
  C      1.848593    9.599094   -0.593513
  H      0.079060    8.507333   -0.040722
  C      3.721332    8.244491   -1.407512
  H      3.365356    6.139457   -1.557686
  C      3.162840    9.487127   -1.077424
  H      1.435426   10.574187   -0.358410
  H      4.723733    8.188386   -1.818928
  N      3.959749   10.693926   -1.259656
  O      3.443076   11.802672   -0.989918
  O      5.136271   10.583006   -1.675137
  O      4.571066    4.603814   -0.067097
  H      5.320819    4.323052    0.462661
  O      3.637344    5.473176    1.888776
  H      4.250567    5.033510    2.482282
  Mg     3.397689    4.643043    0.749327

ORBITAL ENERGIES
----------------

  NO   OCC          E(Eh)            E(eV)
   0   2.0000     -46.685884     -1270.3875
   1   2.0000     -19.249527      -523.8063
   2   2.0000     -19.249484      -523.8051
   3   2.0000     -19.247696      -523.7564
   4   2.0000     -19.179222      -521.8932
   5   2.0000     -19.094563      -519.5895
   6   2.0000     -19.091515      -519.5065
   7   2.0000     -14.633697      -398.2031
   8   2.0000     -14.462318      -393.5397
   9   2.0000     -14.434320      -392.7778
  10   2.0000     -10.317510      -280.7537
  11   2.0000     -10.307879      -280.4917
  12   2.0000     -10.300500      -280.2908
  13   2.0000     -10.292374      -280.0697
  14   2.0000     -10.267358      -279.3890
  15   2.0000     -10.263067      -279.2722
  16   2.0000     -10.262489      -279.2565
  17   2.0000     -10.253487      -279.0116
  18   2.0000     -10.253047      -278.9996
  19   2.0000     -10.249623      -278.9064
  20   2.0000     -10.238863      -278.6136
  21   2.0000     -10.224136      -278.2129
  22   2.0000      -2.997734       -81.5725
  23   2.0000      -1.736764       -47.2597
  24   2.0000      -1.726125       -46.9702
  25   2.0000      -1.714663       -46.6583
  26   2.0000      -1.240950       -33.7680
  27   2.0000      -1.081429       -29.4272
  28   2.0000      -1.065214       -28.9859
  29   2.0000      -1.054313       -28.6893
  30   2.0000      -1.011271       -27.5181
  31   2.0000      -0.930931       -25.3319
  32   2.0000      -0.913193       -24.8492
  33   2.0000      -0.904164       -24.6036
  34   2.0000      -0.876546       -23.8520
  35   2.0000      -0.845778       -23.0148
  36   2.0000      -0.798689       -21.7334
  37   2.0000      -0.787690       -21.4341
  38   2.0000      -0.762982       -20.7618
  39   2.0000      -0.727805       -19.8046
  40   2.0000      -0.681024       -18.5316
  41   2.0000      -0.649782       -17.6815
  42   2.0000      -0.635933       -17.3046
  43   2.0000      -0.624103       -16.9827
  44   2.0000      -0.593409       -16.1475
  45   2.0000      -0.580146       -15.7866
  46   2.0000      -0.554605       -15.0916
  47   2.0000      -0.552872       -15.0444
  48   2.0000      -0.544675       -14.8213
  49   2.0000      -0.537188       -14.6176
  50   2.0000      -0.524757       -14.2794
  51   2.0000      -0.497710       -13.5434
  52   2.0000      -0.474653       -12.9160
  53   2.0000      -0.467442       -12.7197
  54   2.0000      -0.460061       -12.5189
  55   2.0000      -0.458619       -12.4797
  56   2.0000      -0.455020       -12.3817
  57   2.0000      -0.447300       -12.1716
  58   2.0000      -0.439208       -11.9515
  59   2.0000      -0.433761       -11.8032
  60   2.0000      -0.429734       -11.6937
  61   2.0000      -0.425176       -11.5696
  62   2.0000      -0.415194       -11.2980
  63   2.0000      -0.409945       -11.1552
  64   2.0000      -0.394012       -10.7216
  65   2.0000      -0.385106       -10.4793
  66   2.0000      -0.374250       -10.1838
  67   2.0000      -0.370324       -10.0770
  68   2.0000      -0.339460        -9.2372
  69   2.0000      -0.334452        -9.1009
  70   2.0000      -0.330192        -8.9850
  71   2.0000      -0.317891        -8.6503
  72   2.0000      -0.317584        -8.6419
  73   2.0000      -0.310159        -8.4399
  74   2.0000      -0.300131        -8.1670
  75   2.0000      -0.289830        -7.8867
  76   2.0000      -0.280863        -7.6427
  77   2.0000      -0.273248        -7.4354
  78   2.0000      -0.267402        -7.2764
  79   2.0000      -0.250286        -6.8106
  80   2.0000      -0.244206        -6.6452
  81   2.0000      -0.219872        -5.9830
  82   0.0000      -0.114021        -3.1027
  83   0.0000      -0.077255        -2.1022
  84   0.0000      -0.022545        -0.6135
  85   0.0000       0.004792         0.1304
  86   0.0000       0.014641         0.3984

Total SCF time: 0 days 0 hours 0 min 21 sec
Finished LeanSCF after  21.6 sec

----------------------------------------------------------------------------------------------------
                     ABSORPTION SPECTRUM VIA TRANSITION ELECTRIC DIPOLE MOMENTS
----------------------------------------------------------------------------------------------------
     Transition      Energy     Energy  Wavelength fosc(D2)      D2        DX        DY        DZ
                      (eV)      (cm-1)    (nm)                 (au**2)    (au)      (au)      (au)
----------------------------------------------------------------------------------------------------
  0-1A  ->  1-1A    2.365617   19080.0   524.1   0.625203323  10.78745   0.93528   3.08727  -0.61764
  0-1A  ->  2-1A    2.764742   22299.2   448.4   0.071801114   1.06003   0.69338   0.76082   0.02002
  0-1A  ->  3-1A    2.921879   23566.5   424.3   0.000268857   0.00376  -0.03860  -0.04728   0.00547
  0-1A  ->  4-1A    3.081482   24853.8   402.4   0.258719819   3.42698   1.06474   1.51153  -0.09271
  0-1A  ->  5-1A    3.416576   27556.5   362.9   0.122782552   1.46686   0.21357   1.16461  -0.25482
  0-1A  ->  6-1A    3.556284   28683.4   348.6   0.006188255   0.07103  -0.17804   0.19447  -0.03884
  0-1A  ->  7-1A    3.650639   29444.4   339.6   0.006034582   0.06747   0.00967   0.25108   0.06587
  0-1A  ->  8-1A    3.665070   29560.8   338.3   0.001915693   0.02133   0.07124   0.12513  -0.02455
  0-1A  ->  9-1A    3.838637   30960.7   323.0   0.011594371   0.12329   0.34855   0.04233   0.00242
  0-1A  -> 10-1A    3.892590   31395.9   318.5   0.017121196   0.17953   0.15677  -0.36264  -0.15311

FINAL SINGLE POINT ENERGY     -1276.597085546677

DIPOLE MOMENT
-------------

Method             : SCF
Type of density    : Electron Density
Multiplicity       :   1
Irrep              :   0
Energy             : -1276.6840203880790341 Eh
Relativity type    :
Basis              : AO
                                X                 Y                 Z
Electronic contribution:      0.641430196       5.211161615      -1.505615432
Nuclear contribution   :     -5.601969782      -6.503594432       0.055094021
                        -----------------------------------------
Total Dipole Moment    :     -4.960539586      -1.292432818      -1.450521411
                        -----------------------------------------
Magnitude (a.u.)       :      5.327414752
Magnitude (Debye)      :     13.541212161

Rotational constants in cm-1:             0.022984             0.004013             0.003578
Rotational constants in MHz :           689.038165           120.306642           107.261983

                             ****ORCA TERMINATED NORMALLY****
TOTAL RUN TIME: 0 days 0 hours 0 minutes 54 seconds 201 msec
