                         Program Version 6.0.1  -  RELEASE   -
|  1> ! PBE0 def2-SV(P) def2/J RIJCOSX tightSCF noautostart miniprint
|  2> %maxcore      512
|  3> %pal nprocs   6 end
|  4> %cpcm
|  5> smd true
|  6> SMDsolvent "water"
|  7> end
|  8> %tddft
|  9>   nroots 10
| 10>   TDA false
| 11> end
| 12> * xyz   1   1
| 13> C     -0.45169300    1.29584700    0.11539200
| 14> C      0.84434400    1.43411000    0.59889500
| 15> C      1.49561100    2.68337100    0.54028700
| 16> C      0.76978900    3.80387500   -0.04584800
| 17> C     -0.55431300    3.62381900   -0.52931200
| 18> C     -1.16240300    2.39515100   -0.45504400
| 19> H      1.36319500    0.58122800    1.02983100
| 20> H     -1.07285700    4.47032100   -0.96977800
| 21> H     -2.17148500    2.23923600   -0.83204800
| 22> N      1.45999600    4.98879000   -0.10584900
| 23> O      2.72006200    2.83344400    1.00662900
| 24> O     -1.03132000    0.05693400    0.20018600
| 25> H     -1.93879300    0.08827200   -0.16553200
| 26> N      0.84559800    6.06786900   -0.47617100
| 27> C      1.65593900    7.17932800   -0.69192400
| 28> C      1.09661400    8.44923300   -0.41845000
| 29> C      2.96543500    7.09527700   -1.22513100
| 30> C      1.84859300    9.59909400   -0.59351300
| 31> H      0.07906000    8.50733300   -0.04072200
| 32> C      3.72133200    8.24449100   -1.40751200
| 33> H      3.36535600    6.13945700   -1.55768600
| 34> C      3.16284000    9.48712700   -1.07742400
| 35> H      1.43542600   10.57418700   -0.35841000
| 36> H      4.72373300    8.18838600   -1.81892800
| 37> N      3.95974900   10.69392600   -1.25965600
| 38> O      3.44307600   11.80267200   -0.98991800
| 39> O      5.13627100   10.58300600   -1.67513700
| 40> Mg     3.39768900    4.64304300    0.74932700
| 41> *
| 42>
| 43>                          ****END OF INPUT****

CARTESIAN COORDINATES (ANGSTROEM)
---------------------------------
  C     -0.451693    1.295847    0.115392
  C      0.844344    1.434110    0.598895
  C      1.495611    2.683371    0.540287
  C      0.769789    3.803875   -0.045848
  C     -0.554313    3.623819   -0.529312
  C     -1.162403    2.395151   -0.455044
  H      1.363195    0.581228    1.029831
  H     -1.072857    4.470321   -0.969778
  H     -2.171485    2.239236   -0.832048
  N      1.459996    4.988790   -0.105849
  O      2.720062    2.833444    1.006629
  O     -1.031320    0.056934    0.200186
  H     -1.938793    0.088272   -0.165532
  N      0.845598    6.067869   -0.476171
  C      1.655939    7.179328   -0.691924
  C      1.096614    8.449233   -0.418450
  C      2.965435    7.095277   -1.225131
  C      1.848593    9.599094   -0.593513
  H      0.079060    8.507333   -0.040722
  C      3.721332    8.244491   -1.407512
  H      3.365356    6.139457   -1.557686
  C      3.162840    9.487127   -1.077424
  H      1.435426   10.574187   -0.358410
  H      4.723733    8.188386   -1.818928
  N      3.959749   10.693926   -1.259656
  O      3.443076   11.802672   -0.989918
  O      5.136271   10.583006   -1.675137
  Mg     3.397689    4.643043    0.749327

ORBITAL ENERGIES
----------------

  NO   OCC          E(Eh)            E(eV)
   0   2.0000     -47.000731     -1278.9549
   1   2.0000     -19.255032      -523.9561
   2   2.0000     -19.254949      -523.9538
   3   2.0000     -19.254577      -523.9437
   4   2.0000     -19.206999      -522.6490
   5   2.0000     -14.639243      -398.3541
   6   2.0000     -14.488888      -394.2627
   7   2.0000     -14.451505      -393.2454
   8   2.0000     -10.326896      -281.0091
   9   2.0000     -10.323456      -280.9155
  10   2.0000     -10.308571      -280.5105
  11   2.0000     -10.303294      -280.3669
  12   2.0000     -10.282192      -279.7927
  13   2.0000     -10.271822      -279.5105
  14   2.0000     -10.269612      -279.4503
  15   2.0000     -10.265942      -279.3505
  16   2.0000     -10.261126      -279.2194
  17   2.0000     -10.258677      -279.1528
  18   2.0000     -10.247089      -278.8375
  19   2.0000     -10.234122      -278.4846
  20   2.0000      -3.209418       -87.3327
  21   2.0000      -1.934967       -52.6531
  22   2.0000      -1.934145       -52.6308
  23   2.0000      -1.933405       -52.6106
  24   2.0000      -1.246173       -33.9101
  25   2.0000      -1.087896       -29.6031
  26   2.0000      -1.073147       -29.2018
  27   2.0000      -1.070358       -29.1259
  28   2.0000      -1.034492       -28.1500
  29   2.0000      -0.922734       -25.1089
  30   2.0000      -0.888340       -24.1730
  31   2.0000      -0.856110       -23.2960
  32   2.0000      -0.809495       -22.0275
  33   2.0000      -0.796290       -21.6681
  34   2.0000      -0.772855       -21.0305
  35   2.0000      -0.738430       -20.0937
  36   2.0000      -0.692414       -18.8415
  37   2.0000      -0.659284       -17.9400
  38   2.0000      -0.646208       -17.5842
  39   2.0000      -0.633294       -17.2328
  40   2.0000      -0.602493       -16.3947
  41   2.0000      -0.586500       -15.9595
  42   2.0000      -0.565769       -15.3954
  43   2.0000      -0.557937       -15.1822
  44   2.0000      -0.554903       -15.0997
  45   2.0000      -0.547190       -14.8898
  46   2.0000      -0.537616       -14.6293
  47   2.0000      -0.507413       -13.8074
  48   2.0000      -0.482091       -13.1184
  49   2.0000      -0.479347       -13.0437
  50   2.0000      -0.472897       -12.8682
  51   2.0000      -0.469237       -12.7686
  52   2.0000      -0.464083       -12.6283
  53   2.0000      -0.459885       -12.5141
  54   2.0000      -0.449094       -12.2205
  55   2.0000      -0.440375       -11.9832
  56   2.0000      -0.435731       -11.8568
  57   2.0000      -0.418925       -11.3995
  58   2.0000      -0.406815       -11.0700
  59   2.0000      -0.398404       -10.8411
  60   2.0000      -0.385752       -10.4969
  61   2.0000      -0.379643       -10.3306
  62   2.0000      -0.344656        -9.3786
  63   2.0000      -0.340559        -9.2671
  64   2.0000      -0.338930        -9.2227
  65   2.0000      -0.323506        -8.8031
  66   2.0000      -0.321538        -8.7495
  67   2.0000      -0.312728        -8.5098
  68   2.0000      -0.298912        -8.1338
  69   2.0000      -0.284805        -7.7499
  70   2.0000      -0.258031        -7.0214
  71   2.0000      -0.233712        -6.3596
  72   0.0000      -0.125102        -3.4042
  73   0.0000      -0.088426        -2.4062
  74   0.0000      -0.036102        -0.9824
  75   0.0000      -0.017801        -0.4844
  76   0.0000      -0.004411        -0.1200

Total SCF time: 0 days 0 hours 0 min 14 sec
Finished LeanSCF after  15.0 sec

----------------------------------------------------------------------------------------------------
                     ABSORPTION SPECTRUM VIA TRANSITION ELECTRIC DIPOLE MOMENTS
----------------------------------------------------------------------------------------------------
     Transition      Energy     Energy  Wavelength fosc(D2)      D2        DX        DY        DZ
                      (eV)      (cm-1)    (nm)                 (au**2)    (au)      (au)      (au)
----------------------------------------------------------------------------------------------------
  0-1A  ->  1-1A    2.433356   19626.3   509.5   0.665010448  11.15487  -0.97193  -3.13772   0.60409
  0-1A  ->  2-1A    2.879383   23223.8   430.6   0.201942783   2.86267   0.96424   1.38938  -0.05051
  0-1A  ->  3-1A    3.130017   25245.3   396.1   0.164932001   2.15080   0.75206   1.25397  -0.11304
  0-1A  ->  4-1A    3.513201   28335.9   352.9   0.085018268   0.98776  -0.19689  -0.95600   0.18721
  0-1A  ->  5-1A    3.613882   29147.9   343.1   0.001641940   0.01854   0.07335   0.11368  -0.01558
  0-1A  ->  6-1A    3.844180   31005.4   322.5   0.021185360   0.22494  -0.33095   0.30536   0.14891
  0-1A  ->  7-1A    4.049869   32664.4   306.1   0.010284528   0.10365   0.22712   0.21594   0.07377
  0-1A  ->  8-1A    4.204897   33914.8   294.9   0.024891880   0.24163   0.22273   0.42767  -0.09549
  0-1A  ->  9-1A    4.255409   34322.2   291.4   0.001883710   0.01807   0.07437   0.11131   0.01210
  0-1A  -> 10-1A    4.313641   34791.9   287.4   0.091361731   0.86449  -0.41836  -0.81852   0.13964

FINAL SINGLE POINT ENERGY     -1125.190227001606

DIPOLE MOMENT
-------------

Method             : SCF
Type of density    : Electron Density
Multiplicity       :   1
Irrep              :   0
Energy             : -1125.2796511988581187 Eh
Relativity type    :
Basis              : AO
                                X                 Y                 Z
Electronic contribution:      9.988155746       1.647973105       3.909299193
Nuclear contribution   :     -8.895034773      -5.124025994      -2.116777424
                        -----------------------------------------
Total Dipole Moment    :      1.093120973      -3.476052888       1.792521769
                        -----------------------------------------
Magnitude (a.u.)       :      4.060910173
Magnitude (Debye)      :     10.322013357

Rotational constants in cm-1:             0.036931             0.004064             0.003758
Rotational constants in MHz :          1107.153542           121.828319           112.652181

                             ****ORCA TERMINATED NORMALLY****
TOTAL RUN TIME: 0 days 0 hours 0 minutes 35 seconds 244 msec
